version 2
run General-0-20190612-09:15:02-7730
attr configname General
attr datetime 20190612-09:15:02
attr experiment General
attr inifile omnetpp.ini
attr iterationvars ""
attr iterationvarsf ""
attr measurement ""
attr network Lin
attr processid 7730
attr repetition 0
attr replication #0
attr resultdir results
attr runnumber 0
attr seedset 0

vector 0 Lin.master "Unconditional Frame Ids" ETV
vector 1 Lin.master "Eventtriggered Frame Ids" ETV
vector 2 Lin.master "Sporadic Frame Ids" ETV
vector 3 Lin.master "Sporadic Frame delay" ETV
0	1	0.01	0
0	52	0.02	3
0	105	0.04	3
0	417	0.06	23
0	469	0.07	24
0	521	0.08	12
0	574	0.1	1
0	885	0.12	17
0	937	0.13	25
0	989	0.14	8
0	1042	0.16	20
0	1351	0.18	5
0	1403	0.19	15
0	1455	0.2	0
0	1507	0.22	18
0	1819	0.24	19
0	1871	0.25	39
0	1923	0.26	1
0	1975	0.28	9
0	2284	0.3	10
0	2336	0.31	23
0	2388	0.32	11
0	2441	0.34	28
0	2750	0.36	36
0	2802	0.37	5
0	2854	0.38	17
0	2907	0.4	4
0	3219	0.42	35
0	3271	0.43	11
0	3323	0.44	18
0	3376	0.46	0
0	3687	0.48	20
0	3739	0.49	4
0	3791	0.5	4
0	3844	0.52	3
0	4156	0.54	20
0	4208	0.55	23
0	4260	0.56	13
0	4313	0.58	21
0	4625	0.6	31
0	4677	0.61	30
0	4729	0.62	36
0	4782	0.64	29
0	5094	0.66	21
0	5146	0.67	0
0	5197	0.68	10
0	5250	0.7	23
0	5562	0.72	30
0	5614	0.73	3
0	5666	0.74	35
0	5719	0.76	17
0	6031	0.78	22
0	6083	0.79	11
0	6135	0.8	16
0	6188	0.82	0
0	6499	0.84	13
0	6551	0.85	24
0	6603	0.86	2
0	6655	0.88	3
0	6967	0.9	8
0	7019	0.91	31
0	7071	0.92	26
0	7124	0.94	3
0	7433	0.96	3
0	7485	0.97	11
0	7537	0.98	22
0	7590	1	11
0	7899	1.02	29
0	7951	1.03	25
0	8003	1.04	19
0	8056	1.06	32
0	8368	1.08	7
0	8420	1.09	24
0	8472	1.1	18
0	8525	1.12	15
0	8837	1.14	31
0	8889	1.15	24
0	8941	1.16	24
0	8994	1.18	18
0	9306	1.2	22
0	9358	1.21	5
0	9410	1.22	32
0	9463	1.24	20
0	9775	1.26	2
0	9826	1.27	27
0	9878	1.28	25
0	9931	1.3	20
0	10243	1.32	23
0	10295	1.33	26
0	10347	1.34	3
0	10400	1.36	9
0	10712	1.38	34
0	10764	1.39	24
0	10816	1.4	5
0	10869	1.42	36
0	11181	1.44	16
0	11233	1.45	8
0	11285	1.46	1
0	11337	1.48	17
0	11649	1.5	36
0	11701	1.51	25
0	11753	1.52	39
0	11806	1.54	35
0	12118	1.56	20
0	12170	1.57	2
0	12221	1.58	5
0	12274	1.6	12
0	12586	1.62	21
0	12638	1.63	39
0	12690	1.64	22
0	12743	1.66	17
0	13055	1.68	29
0	13107	1.69	21
0	13159	1.7	25
0	13212	1.72	32
0	13524	1.74	0
0	13575	1.75	22
0	13627	1.76	16
0	13680	1.78	36
0	13992	1.8	8
0	14044	1.81	27
0	14096	1.82	23
0	14149	1.84	19
0	14461	1.86	0
0	14512	1.87	11
0	14564	1.88	36
0	14617	1.9	32
0	14929	1.92	22
0	14981	1.93	19
0	15033	1.94	8
0	15086	1.96	13
0	15395	1.98	15
0	15447	1.99	11
0	15499	2	39
0	15552	2.02	26
0	15864	2.04	35
0	15916	2.05	18
0	15968	2.06	34
0	16021	2.08	30
0	16333	2.1	23
0	16385	2.11	6
0	16437	2.12	30
0	16490	2.14	16
0	16802	2.16	13
0	16854	2.17	6
0	16906	2.18	39
0	16959	2.2	13
0	17271	2.22	15
0	17323	2.23	8
0	17375	2.24	6
0	17428	2.26	7
0	17740	2.28	23
0	17792	2.29	4
0	17844	2.3	23
0	17897	2.32	25
0	18209	2.34	29
0	18261	2.35	22
0	18313	2.36	7
0	18366	2.38	9
0	18675	2.4	36
0	18727	2.41	20
0	18779	2.42	3
0	18832	2.44	1
0	19143	2.46	10
0	19195	2.47	30
0	19247	2.48	31
0	19300	2.5	6
0	19612	2.52	10
0	19664	2.53	33
0	19716	2.54	3
0	19769	2.56	36
0	20081	2.58	36
0	20133	2.59	5
0	20185	2.6	3
0	20238	2.62	33
0	20550	2.64	9
0	20602	2.65	5
0	20654	2.66	7
0	20707	2.68	30
0	21019	2.7	27
0	21071	2.71	3
0	21123	2.72	20
0	21176	2.74	19
0	21485	2.76	27
0	21537	2.77	30
0	21589	2.78	19
0	21642	2.8	21
0	21954	2.82	38
0	22006	2.83	10
0	22058	2.84	34
0	22111	2.86	23
0	22423	2.88	6
0	22475	2.89	4
0	22527	2.9	29
0	22580	2.92	17
0	22892	2.94	36
0	22944	2.95	4
0	22996	2.96	13
0	23049	2.98	23
0	23361	3	22
0	23413	3.01	15
0	23465	3.02	26
0	23518	3.04	38
0	23827	3.06	0
0	23878	3.07	10
0	23930	3.08	13
0	23984	3.1	6
0	24296	3.12	18
0	24348	3.13	28
0	24400	3.14	2
0	24503	3.16	14
0	24815	3.18	29
0	24867	3.19	33
0	24919	3.2	32
0	25023	3.22	8
0	25332	3.24	27
0	25384	3.25	1
0	25435	3.26	0
0	25538	3.28	34
0	25850	3.3	19
0	25902	3.31	6
0	25954	3.32	6
0	26058	3.34	2
0	26369	3.36	9
0	26421	3.37	13
0	26473	3.38	31
0	26577	3.4	8
0	26889	3.42	16
0	26941	3.43	37
0	26993	3.44	1
0	27045	3.46	5
0	27357	3.48	5
0	27409	3.49	3
0	27461	3.5	27
0	27514	3.52	3
0	27826	3.54	5
0	27878	3.55	30
0	27930	3.56	3
0	27983	3.58	36
0	28295	3.6	33
0	28347	3.61	7
0	28399	3.62	33
0	28452	3.64	29
0	28764	3.66	23
0	28816	3.67	25
0	28868	3.68	0
0	28920	3.7	12
0	29232	3.72	12
0	29284	3.73	18
0	29336	3.74	7
0	29389	3.76	29
0	29701	3.78	16
0	29753	3.79	28
0	29805	3.8	23
0	29858	3.82	2
0	30169	3.84	25
0	30221	3.85	36
0	30273	3.86	4
0	30326	3.88	10
0	30638	3.9	33
0	30690	3.91	35
0	30742	3.92	24
0	30795	3.94	20
0	31107	3.96	28
0	31159	3.97	18
0	31211	3.98	19
0	31264	4	0
0	31575	4.02	6
0	31627	4.03	34
0	31679	4.04	38
0	31732	4.06	0
0	32043	4.08	12
0	32095	4.09	33
0	32147	4.1	12
0	32200	4.12	38
0	32512	4.14	11
0	32564	4.15	21
0	32616	4.16	2
0	32668	4.18	12
0	32980	4.2	1
0	33031	4.21	15
0	33083	4.22	12
0	33136	4.24	12
0	33448	4.26	28
0	33500	4.27	21
0	33552	4.28	36
0	33605	4.3	26
0	33917	4.32	31
0	33969	4.33	16
0	34021	4.34	10
0	34074	4.36	29
0	34386	4.38	19
0	34438	4.39	36
0	34490	4.4	28
0	34543	4.42	26
0	34855	4.44	16
0	34907	4.45	0
0	34958	4.46	23
0	35011	4.48	10
0	35323	4.5	9
0	35375	4.51	37
0	35427	4.52	17
0	35480	4.54	9
0	35792	4.56	36
0	35844	4.57	23
0	35896	4.58	7
0	35949	4.6	22
0	36261	4.62	11
0	36313	4.63	14
0	36365	4.64	30
0	36418	4.66	34
0	36730	4.68	37
0	36782	4.69	13
0	36834	4.7	19
0	36887	4.72	8
0	37199	4.74	29
0	37251	4.75	16
0	37303	4.76	22
0	37356	4.78	19
0	37668	4.8	22
0	37720	4.81	37
0	37772	4.82	29
0	37825	4.84	17
0	38137	4.86	33
0	38189	4.87	37
0	38241	4.88	24
0	38294	4.9	35
0	38606	4.92	37
0	38658	4.93	26
0	38710	4.94	25
0	38763	4.96	24
0	39075	4.98	5
0	39127	4.99	19
0	39179	5	22
0	39232	5.02	11
0	39544	5.04	7
0	39596	5.05	32
0	39648	5.06	18
0	39701	5.08	21
0	40013	5.1	38
0	40065	5.11	1
0	40116	5.12	36
0	40169	5.14	5
0	40481	5.16	9
0	40533	5.17	4
0	40585	5.18	24
0	40638	5.2	2
0	40949	5.22	36
0	41001	5.23	26
0	41053	5.24	34
0	41106	5.26	20
0	41418	5.28	21
0	41470	5.29	36
0	41522	5.3	34
0	41575	5.32	34
0	41887	5.34	33
0	41939	5.35	6
0	41991	5.36	24
0	42044	5.38	38
0	42353	5.4	26
0	42405	5.41	26
0	42457	5.42	29
0	42510	5.44	5
0	42822	5.46	39
0	42874	5.47	7
0	42926	5.48	38
0	42979	5.5	29
0	43291	5.52	24
0	43343	5.53	4
0	43395	5.54	22
0	43448	5.56	29
0	43761	5.58	7
0	43813	5.59	14
0	43865	5.6	9
0	43969	5.62	39
0	44281	5.64	21
0	44333	5.65	9
0	44385	5.66	18
0	44489	5.68	17
0	44801	5.7	21
0	44853	5.71	1
0	44904	5.72	12
0	44957	5.74	25
0	45269	5.76	16
0	45321	5.77	33
0	45373	5.78	38
0	45426	5.8	8
0	45738	5.82	31
0	45790	5.83	0
0	45841	5.84	37
0	45894	5.86	15
0	46206	5.88	16
0	46258	5.89	21
0	46310	5.9	3
0	46363	5.92	0
0	46674	5.94	18
0	46726	5.95	22
0	46778	5.96	15
0	46831	5.98	7
0	47143	6	13
0	47195	6.01	14
0	47247	6.02	20
0	47300	6.04	27
0	47612	6.06	31
0	47664	6.07	18
0	47716	6.08	28
0	47769	6.1	23
0	48078	6.12	26
0	48130	6.13	2
0	48181	6.14	17
0	48234	6.16	38
0	48546	6.18	34
0	48598	6.19	38
0	48650	6.2	21
0	48703	6.22	32
0	49015	6.24	10
0	49067	6.25	17
0	49119	6.26	37
0	49172	6.28	23
0	49484	6.3	29
0	49536	6.31	7
0	49588	6.32	9
0	49641	6.34	0
0	49949	6.36	21
0	50001	6.37	26
0	50053	6.38	17
0	50106	6.4	17
0	50418	6.42	16
0	50470	6.43	4
0	50522	6.44	26
0	50575	6.46	6
0	50887	6.48	27
0	50939	6.49	14
0	50991	6.5	22
0	51044	6.52	8
0	51356	6.54	28
0	51408	6.55	16
0	51460	6.56	7
0	51513	6.58	32
0	51825	6.6	13
0	51877	6.61	39
0	51929	6.62	4
0	51982	6.64	12
0	52294	6.66	36
0	52346	6.67	18
0	52398	6.68	30
0	52451	6.7	35
0	52760	6.72	9
0	52812	6.73	33
0	52864	6.74	12
0	52917	6.76	36
0	53229	6.78	38
0	53281	6.79	35
0	53333	6.8	29
0	53386	6.82	17
0	53698	6.84	27
0	53750	6.85	21
0	53802	6.86	10
0	53855	6.88	29
0	54167	6.9	34
0	54219	6.91	13
0	54271	6.92	2
0	54323	6.94	2
0	54634	6.96	39
0	54686	6.97	13
0	54738	6.98	26
0	54791	7	12
0	55100	7.02	36
0	55152	7.03	32
0	55204	7.04	28
0	55257	7.06	2
0	55568	7.08	36
0	55620	7.09	6
0	55672	7.1	15
0	55725	7.12	29
0	56037	7.14	19
0	56089	7.15	23
0	56141	7.16	35
0	56194	7.18	2
0	56505	7.2	10
0	56557	7.21	27
0	56609	7.22	22
0	56662	7.24	35
0	56974	7.26	10
0	57026	7.27	13
0	57078	7.28	37
0	57131	7.3	18
0	57443	7.32	36
0	57495	7.33	16
0	57547	7.34	26
0	57600	7.36	16
0	57909	7.38	20
0	57961	7.39	15
0	58013	7.4	19
0	58066	7.42	34
0	58378	7.44	23
0	58430	7.45	5
0	58482	7.46	39
0	58535	7.48	34
0	58847	7.5	33
0	58899	7.51	35
0	58951	7.52	35
0	59004	7.54	5
0	59316	7.56	25
0	59368	7.57	13
0	59420	7.58	27
0	59473	7.6	19
0	59785	7.62	3
0	59837	7.63	19
0	59889	7.64	0
0	59941	7.66	20
0	60253	7.68	2
0	60304	7.69	7
0	60356	7.7	11
0	60409	7.72	28
0	60721	7.74	21
0	60773	7.75	5
0	60825	7.76	2
0	60877	7.78	27
0	61189	7.8	29
0	61241	7.81	33
0	61293	7.82	16
0	61346	7.84	24
0	61658	7.86	19
0	61710	7.87	32
0	61762	7.88	22
0	61815	7.9	38
0	62127	7.92	16
0	62179	7.93	17
0	62231	7.94	25
0	62284	7.96	17
0	62596	7.98	36
0	62648	7.99	22
0	62700	8	10
0	62753	8.02	30
0	63065	8.04	1
0	63116	8.05	7
0	63168	8.06	15
0	63221	8.08	32
0	63533	8.1	4
0	63585	8.11	26
0	63637	8.12	5
0	63690	8.14	24
0	64002	8.16	8
0	64054	8.17	36
0	64107	8.18	9
0	64211	8.2	32
0	64523	8.22	33
0	64575	8.23	8
0	64627	8.24	2
0	64679	8.26	17
0	64991	8.28	37
0	65043	8.29	22
0	65095	8.3	7
0	65148	8.32	26
0	65460	8.34	19
0	65512	8.35	18
0	65564	8.36	32
0	65617	8.38	36
0	65929	8.4	13
0	65981	8.41	31
0	66033	8.42	18
0	66086	8.44	27
0	66398	8.46	1
0	66449	8.47	24
0	66501	8.48	27
0	66554	8.5	24
0	66866	8.52	14
0	66918	8.53	10
0	66970	8.54	14
0	67023	8.56	13
0	67335	8.58	25
0	67387	8.59	31
0	67439	8.6	22
0	67492	8.62	20
0	67804	8.64	31
0	67856	8.65	6
0	67908	8.66	22
0	67961	8.68	25
0	68273	8.7	19
0	68325	8.71	25
0	68377	8.72	29
0	68430	8.74	10
0	68742	8.76	1
0	68793	8.77	22
0	68845	8.78	22
0	68898	8.8	28
0	69210	8.82	38
0	69262	8.83	36
0	69314	8.84	18
0	69367	8.86	25
0	69679	8.88	17
0	69731	8.89	0
0	69782	8.9	3
0	69835	8.92	36
0	70147	8.94	4
0	70199	8.95	16
0	70251	8.96	5
0	70304	8.98	22
0	70616	9	38
0	70668	9.01	31
0	70720	9.02	11
0	70773	9.04	27
0	71085	9.06	5
0	71137	9.07	24
0	71189	9.08	33
0	71242	9.1	14
0	71554	9.12	8
0	71606	9.13	39
0	71658	9.14	15
0	71711	9.16	25
0	72023	9.18	9
0	72075	9.19	35
0	72127	9.2	39
0	72180	9.22	18
0	72492	9.24	10
0	72544	9.25	24
0	72596	9.26	31
0	72649	9.28	27
0	72961	9.3	37
0	73013	9.31	11
0	73065	9.32	24
0	73118	9.34	21
0	73430	9.36	31
0	73482	9.37	11
0	73534	9.38	14
0	73587	9.4	1
0	73898	9.42	25
0	73950	9.43	8
0	74002	9.44	12
0	74055	9.46	19
0	74367	9.48	35
0	74419	9.49	17
0	74471	9.5	12
0	74524	9.52	7
0	74836	9.54	1
0	74887	9.55	18
0	74939	9.56	25
0	74992	9.58	8
0	75304	9.6	36
0	75356	9.61	12
0	75408	9.62	31
0	75461	9.64	10
0	75773	9.66	10
0	75825	9.67	11
0	75877	9.68	27
0	75930	9.7	16
0	76239	9.72	38
0	76291	9.73	3
0	76343	9.74	17
0	76396	9.76	7
0	76708	9.78	8
0	76760	9.79	38
0	76812	9.8	33
0	76865	9.82	21
0	77177	9.84	31
0	77229	9.85	9
0	77281	9.86	18
0	77334	9.88	19
0	77646	9.9	24
0	77698	9.91	26
0	77750	9.92	32
0	77803	9.94	14
0	78112	9.96	1
0	78163	9.97	26
0	78215	9.98	4
0	78268	10	21
0	78580	10.02	27
0	78632	10.03	22
0	78684	10.04	34
0	78737	10.06	4
0	79049	10.08	6
0	79101	10.09	9
0	79153	10.1	13
0	79206	10.12	9
0	79518	10.14	28
0	79570	10.15	0
0	79621	10.16	10
0	79674	10.18	13
0	79986	10.2	17
0	80038	10.21	34
0	80090	10.22	18
0	80143	10.24	18
0	80455	10.26	5
0	80507	10.27	19
0	80559	10.28	10
0	80612	10.3	9
0	80924	10.32	22
0	80976	10.33	27
0	81028	10.34	21
0	81081	10.36	35
0	81393	10.38	8
0	81445	10.39	15
0	81497	10.4	1
0	81549	10.42	30
0	81858	10.44	6
0	81910	10.45	3
0	81962	10.46	29
0	82015	10.48	3
0	82327	10.5	3
0	82379	10.51	27
0	82431	10.52	28
0	82484	10.54	14
0	82796	10.56	27
0	82848	10.57	23
0	82900	10.58	23
0	82953	10.6	32
0	83265	10.62	39
0	83317	10.63	22
0	83369	10.64	26
0	83422	10.66	5
0	83734	10.68	29
0	83786	10.69	30
0	83838	10.7	30
0	83891	10.72	21
0	84203	10.74	25
0	84255	10.75	3
0	84307	10.76	20
0	84360	10.78	19
0	84672	10.8	7
0	84724	10.81	37
0	84776	10.82	34
0	84829	10.84	39
0	85141	10.86	24
0	85193	10.87	33
0	85246	10.88	24
0	85350	10.9	10
0	85662	10.92	21
0	85714	10.93	20
0	85766	10.94	27
0	85819	10.96	25
0	86131	10.98	16
0	86183	10.99	11
0	86235	11	2
0	86287	11.02	5
0	86599	11.04	30
0	86651	11.05	3
0	86703	11.06	29
0	86756	11.08	0
0	87067	11.1	36
0	87119	11.11	21
0	87171	11.12	30
0	87224	11.14	37
0	87536	11.16	22
0	87588	11.17	17
0	87640	11.18	22
0	87693	11.2	2
0	88004	11.22	4
0	88056	11.23	6
0	88108	11.24	8
0	88161	11.26	8
0	88473	11.28	37
0	88525	11.29	29
0	88577	11.3	17
0	88630	11.32	11
0	88942	11.34	15
0	88994	11.35	3
0	89046	11.36	36
0	89099	11.38	39
0	89411	11.4	11
0	89463	11.41	15
0	89515	11.42	26
0	89568	11.44	33
0	89880	11.46	32
0	89932	11.47	29
0	89984	11.48	27
0	90037	11.5	27
0	90349	11.52	11
0	90401	11.53	25
0	90453	11.54	6
0	90506	11.56	22
0	90818	11.58	29
0	90870	11.59	27
0	90922	11.6	19
0	90975	11.62	26
0	91287	11.64	7
0	91339	11.65	35
0	91391	11.66	28
0	91444	11.68	7
0	91756	11.7	37
0	91808	11.71	33
0	91860	11.72	28
0	91913	11.74	38
0	92225	11.76	16
0	92277	11.77	2
0	92328	11.78	11
0	92381	11.8	10
0	92693	11.82	29
0	92745	11.83	14
0	92797	11.84	15
0	92850	11.86	32
0	93162	11.88	1
0	93213	11.89	11
0	93265	11.9	6
0	93318	11.92	36
0	93630	11.94	12
0	93682	11.95	0
0	93733	11.96	1
0	93785	11.98	20
0	94094	12	21
0	94146	12.01	13
0	94198	12.02	3
0	94251	12.04	17
0	94563	12.06	17
0	94615	12.07	31
0	94667	12.08	28
0	94720	12.1	7
0	95032	12.12	28
0	95084	12.13	8
0	95136	12.14	27
0	95189	12.16	7
0	95501	12.18	37
0	95553	12.19	20
0	95605	12.2	28
0	95658	12.22	9
0	95970	12.24	3
0	96022	12.25	30
0	96074	12.26	5
0	96127	12.28	16
0	96439	12.3	31
0	96491	12.31	26
0	96543	12.32	10
0	96596	12.34	4
0	96908	12.36	38
0	96960	12.37	11
0	97012	12.38	11
0	97065	12.4	36
0	97377	12.42	9
0	97429	12.43	8
0	97481	12.44	28
0	97534	12.46	30
0	97846	12.48	18
0	97898	12.49	1
0	97949	12.5	27
0	98002	12.52	3
0	98311	12.54	6
0	98363	12.55	7
0	98415	12.56	3
0	98468	12.58	36
0	98780	12.6	38
0	98832	12.61	33
0	98884	12.62	4
0	98937	12.64	13
0	99249	12.66	34
0	99301	12.67	16
0	99353	12.68	29
0	99406	12.7	22
0	99718	12.72	34
0	99770	12.73	6
0	99822	12.74	12
0	99875	12.76	31
0	100187	12.78	4
0	100239	12.79	10
0	100291	12.8	33
0	100344	12.82	13
0	100656	12.84	16
0	100708	12.85	37
0	100760	12.86	36
0	100813	12.88	4
0	101122	12.9	37
0	101174	12.91	11
0	101226	12.92	5
0	101279	12.94	16
0	101591	12.96	18
0	101643	12.97	16
0	101695	12.98	21
0	101748	13	10
0	102060	13.02	19
0	102112	13.03	39
0	102164	13.04	33
0	102217	13.06	30
0	102529	13.08	6
0	102581	13.09	20
0	102633	13.1	30
0	102686	13.12	33
0	102998	13.14	25
0	103050	13.15	27
0	103102	13.16	37
0	103155	13.18	21
0	103467	13.2	12
0	103519	13.21	6
0	103571	13.22	9
0	103624	13.24	8
0	103933	13.26	30
0	103985	13.27	37
0	104037	13.28	6
0	104090	13.3	6
0	104402	13.32	21
0	104454	13.33	0
0	104505	13.34	22
0	104558	13.36	26
0	104870	13.38	30
0	104922	13.39	36
0	104974	13.4	8
0	105027	13.42	20
0	105336	13.44	13
0	105388	13.45	9
0	105440	13.46	26
0	105493	13.48	34
0	105805	13.5	21
0	105857	13.51	11
0	105909	13.52	11
0	105962	13.54	14
0	106271	13.56	17
0	106323	13.57	10
0	106375	13.58	9
0	106428	13.6	25
0	106740	13.62	21
0	106792	13.63	23
0	106844	13.64	38
0	106897	13.66	22
0	107209	13.68	30
0	107261	13.69	18
0	107313	13.7	2
0	107365	13.72	27
0	107677	13.74	13
0	107729	13.75	14
0	107781	13.76	33
0	107834	13.78	10
0	108146	13.8	9
0	108198	13.81	13
0	108250	13.82	29
0	108303	13.84	13
0	108615	13.86	24
0	108667	13.87	8
0	108719	13.88	32
0	108772	13.9	16
0	109084	13.92	15
0	109136	13.93	21
0	109188	13.94	17
0	109241	13.96	27
0	109554	13.98	9
0	109606	13.99	17
0	109658	14	16
0	109762	14.02	18
0	110074	14.04	18
0	110126	14.05	34
0	110178	14.06	23
0	110282	14.08	1
0	110593	14.1	9
0	110645	14.11	9
0	110697	14.12	34
0	110801	14.14	14
0	111113	14.16	23
0	111165	14.17	29
0	111217	14.18	26
0	111321	14.2	10
0	111633	14.22	17
0	111685	14.23	19
0	111737	14.24	27
0	111841	14.26	9
0	112153	14.28	37
0	112205	14.29	15
0	112257	14.3	21
0	112310	14.32	35
0	112622	14.34	37
0	112674	14.35	31
0	112726	14.36	3
0	112779	14.38	13
0	113091	14.4	10
0	113143	14.41	3
0	113195	14.42	15
0	113248	14.44	34
0	113560	14.46	25
0	113612	14.47	17
0	113664	14.48	5
0	113717	14.5	7
0	114029	14.52	27
0	114081	14.53	18
0	114133	14.54	13
0	114186	14.56	9
0	114498	14.58	16
0	114550	14.59	7
0	114602	14.6	16
0	114655	14.62	37
0	114967	14.64	14
0	115019	14.65	33
0	115071	14.66	4
0	115124	14.68	12
0	115433	14.7	22
0	115485	14.71	33
0	115537	14.72	1
0	115589	14.74	10
0	115898	14.76	27
0	115950	14.77	20
0	116002	14.78	18
0	116055	14.8	6
0	116367	14.82	27
0	116419	14.83	36
0	116471	14.84	25
0	116524	14.86	31
0	116836	14.88	12
0	116888	14.89	11
0	116940	14.9	27
0	116993	14.92	21
0	117305	14.94	1
0	117356	14.95	37
0	117408	14.96	23
0	117461	14.98	8
0	117773	15	6
0	117825	15.01	37
0	117877	15.02	26
0	117930	15.04	12
0	118239	15.06	23
0	118291	15.07	8
0	118343	15.08	16
0	118396	15.1	18
0	118708	15.12	0
0	118759	15.13	3
0	118811	15.14	20
0	118864	15.16	33
0	119176	15.18	28
0	119228	15.19	19
0	119280	15.2	3
0	119333	15.22	14
0	119645	15.24	20
0	119697	15.25	32
0	119749	15.26	28
0	119802	15.28	36
0	120114	15.3	1
0	120165	15.31	29
0	120217	15.32	37
0	120270	15.34	34
0	120582	15.36	27
0	120634	15.37	4
0	120686	15.38	6
0	120739	15.4	3
0	121051	15.42	10
0	121103	15.43	14
0	121155	15.44	0
0	121207	15.46	32
0	121519	15.48	16
0	121571	15.49	17
0	121623	15.5	9
0	121676	15.52	26
0	121985	15.54	28
0	122037	15.55	13
0	122089	15.56	27
0	122142	15.58	25
0	122454	15.6	15
0	122506	15.61	21
0	122558	15.62	12
0	122611	15.64	34
0	122923	15.66	19
0	122975	15.67	6
0	123027	15.68	9
0	123080	15.7	32
0	123389	15.72	22
0	123441	15.73	28
0	123493	15.74	14
0	123546	15.76	25
0	123858	15.78	35
0	123910	15.79	31
0	123962	15.8	5
0	124015	15.82	27
0	124327	15.84	28
0	124379	15.85	39
0	124431	15.86	32
0	124484	15.88	4
0	124793	15.9	35
0	124845	15.91	26
0	124897	15.92	28
0	124950	15.94	16
0	125262	15.96	17
0	125314	15.97	1
0	125365	15.98	32
0	125418	16	38
0	125730	16.02	38
0	125782	16.03	16
0	125834	16.04	32
0	125887	16.06	23
0	126199	16.08	27
0	126251	16.09	35
0	126303	16.1	22
0	126356	16.12	1
0	126667	16.14	20
0	126719	16.15	5
0	126771	16.16	19
0	126824	16.18	37
0	127136	16.2	25
0	127188	16.21	12
0	127240	16.22	27
0	127293	16.24	10
0	127605	16.26	6
0	127657	16.27	0
0	127708	16.28	34
0	127761	16.3	23
0	128073	16.32	38
0	128125	16.33	0
0	128176	16.34	8
0	128229	16.36	13
0	128541	16.38	2
0	128592	16.39	21
0	128644	16.4	18
0	128697	16.42	16
0	129009	16.44	25
0	129061	16.45	24
0	129113	16.46	0
0	129165	16.48	13
0	129477	16.5	35
0	129529	16.51	11
0	129581	16.52	4
0	129634	16.54	10
0	129946	16.56	29
0	129998	16.57	35
0	130050	16.58	0
0	130102	16.6	0
0	130413	16.62	7
0	130465	16.63	13
0	130517	16.64	17
0	130570	16.66	8
0	130882	16.68	10
0	130934	16.69	15
0	130986	16.7	38
0	131039	16.72	35
0	131351	16.74	33
0	131403	16.75	10
0	131455	16.76	21
0	131508	16.78	10
0	131820	16.8	20
0	131872	16.81	21
0	131924	16.82	19
0	131977	16.84	6
0	132289	16.86	37
0	132341	16.87	28
0	132393	16.88	36
0	132446	16.9	1
0	132757	16.92	27
0	132809	16.93	9
0	132861	16.94	7
0	132914	16.96	5
0	133226	16.98	18
0	133278	16.99	17
0	133330	17	27
0	133383	17.02	9
0	133695	17.04	34
0	133747	17.05	10
0	133799	17.06	5
0	133852	17.08	32
0	134164	17.1	1
0	134215	17.11	32
0	134267	17.12	0
0	134319	17.14	37
0	134631	17.16	35
0	134683	17.17	3
0	134735	17.18	27
0	134788	17.2	9
0	135100	17.22	4
0	135152	17.23	2
0	135203	17.24	30
0	135256	17.26	12
0	135568	17.28	3
0	135620	17.29	31
0	135672	17.3	33
0	135725	17.32	11
0	136037	17.34	39
0	136089	17.35	25
0	136141	17.36	6
0	136194	17.38	29
0	136506	17.4	23
0	136558	17.41	29
0	136610	17.42	17
0	136663	17.44	33
0	136972	17.46	1
0	137023	17.47	0
0	137074	17.48	15
0	137127	17.5	8
0	137439	17.52	25
0	137491	17.53	39
0	137543	17.54	6
0	137596	17.56	30
0	137908	17.58	16
0	137960	17.59	8
0	138012	17.6	6
0	138065	17.62	4
0	138377	17.64	37
0	138429	17.65	29
0	138481	17.66	25
0	138534	17.68	0
0	138845	17.7	7
0	138897	17.71	7
0	138949	17.72	26
0	139002	17.74	22
0	139314	17.76	6
0	139366	17.77	20
0	139418	17.78	4
0	139472	17.8	14
0	139784	17.82	10
0	139836	17.83	4
0	139888	17.84	11
0	139992	17.86	3
0	140304	17.88	28
0	140356	17.89	18
0	140408	17.9	1
0	140460	17.92	4
0	140772	17.94	34
0	140824	17.95	9
0	140876	17.96	6
0	140929	17.98	31
0	141241	18	16
0	141293	18.01	28
0	141345	18.02	11
0	141398	18.04	38
0	141710	18.06	18
0	141762	18.07	22
0	141814	18.08	4
0	141867	18.1	18
0	142179	18.12	8
0	142231	18.13	18
0	142283	18.14	7
0	142336	18.16	29
0	142648	18.18	37
0	142700	18.19	35
0	142752	18.2	7
0	142805	18.22	2
0	143113	18.24	10
0	143165	18.25	5
0	143217	18.26	22
0	143270	18.28	1
0	143581	18.3	7
0	143633	18.31	36
0	143685	18.32	2
0	143737	18.34	29
0	144049	18.36	19
0	144101	18.37	27
0	144153	18.38	28
0	144206	18.4	23
0	144518	18.42	29
0	144570	18.43	34
0	144622	18.44	30
0	144675	18.46	27
0	144987	18.48	23
0	145039	18.49	20
0	145091	18.5	1
0	145143	18.52	8
0	145455	18.54	25
0	145507	18.55	10
0	145559	18.56	13
0	145612	18.58	21
0	145924	18.6	34
0	145976	18.61	26
0	146028	18.62	36
0	146081	18.64	12
0	146393	18.66	25
0	146445	18.67	38
0	146497	18.68	36
0	146550	18.7	28
0	146862	18.72	7
0	146914	18.73	2
0	146965	18.74	13
0	147018	18.76	29
0	147330	18.78	22
0	147382	18.79	37
0	147434	18.8	34
0	147487	18.82	38
0	147796	18.84	1
0	147847	18.85	17
0	147899	18.86	34
0	147952	18.88	13
0	148264	18.9	38
0	148316	18.91	31
0	148368	18.92	38
0	148421	18.94	4
0	148733	18.96	26
0	148785	18.97	28
0	148837	18.98	32
0	148890	19	33
0	149199	19.02	17
0	149251	19.03	35
0	149303	19.04	22
0	149356	19.06	22
0	149668	19.08	4
0	149720	19.09	19
0	149772	19.1	38
0	149825	19.12	13
0	150137	19.14	31
0	150189	19.15	2
0	150240	19.16	7
0	150293	19.18	25
0	150605	19.2	28
0	150657	19.21	6
0	150709	19.22	28
0	150762	19.24	38
0	151074	19.26	20
0	151126	19.27	6
0	151178	19.28	0
0	151230	19.3	3
0	151542	19.32	16
0	151594	19.33	30
0	151646	19.34	11
0	151699	19.36	0
0	152010	19.38	34
0	152062	19.39	38
0	152114	19.4	34
0	152167	19.42	21
0	152479	19.44	7
0	152531	19.45	4
0	152583	19.46	9
0	152636	19.48	33
0	152948	19.5	21
0	153000	19.51	23
0	153052	19.52	5
0	153105	19.54	2
0	153413	19.56	7
0	153465	19.57	21
0	153517	19.58	14
0	153570	19.6	37
0	153882	19.62	11
0	153934	19.63	9
0	153986	19.64	9
0	154039	19.66	22
0	154351	19.68	15
0	154403	19.69	0
0	154454	19.7	15
0	154507	19.72	9
0	154819	19.74	1
0	154870	19.75	8
0	154922	19.76	11
0	154975	19.78	30
0	155287	19.8	18
0	155339	19.81	11
0	155391	19.82	39
0	155444	19.84	24
0	155756	19.86	29
0	155808	19.87	14
0	155860	19.88	15
0	155913	19.9	32
0	156225	19.92	9
0	156277	19.93	7
0	156329	19.94	30
0	156382	19.96	30
0	156694	19.98	0
0	156745	19.99	27
0	156797	20	25
0	156850	20.02	7
0	157162	20.04	29
0	157214	20.05	13
0	157266	20.06	1
0	157318	20.08	25
0	157630	20.1	39
0	157682	20.11	38
0	157734	20.12	24
0	157787	20.14	36
0	158099	20.16	35
0	158151	20.17	3
0	158203	20.18	37
0	158256	20.2	3
0	158568	20.22	12
0	158620	20.23	39
0	158672	20.24	0
0	158724	20.26	23
0	159036	20.28	21
0	159088	20.29	23
0	159140	20.3	33
0	159193	20.32	24
0	159505	20.34	24
0	159557	20.35	5
0	159609	20.36	25
0	159662	20.38	38
0	159974	20.4	15
0	160026	20.41	36
0	160078	20.42	17
0	160131	20.44	15
0	160443	20.46	31
0	160495	20.47	23
0	160547	20.48	4
0	160652	20.5	11
0	160961	20.52	10
0	161013	20.53	38
0	161065	20.54	39
0	161169	20.56	9
0	161481	20.58	5
0	161533	20.59	38
0	161585	20.6	4
0	161689	20.62	39
0	161998	20.64	34
0	162050	20.65	10
0	162102	20.66	39
0	162155	20.68	26
0	162467	20.7	28
0	162519	20.71	2
0	162570	20.72	22
0	162623	20.74	24
0	162935	20.76	35
0	162987	20.77	29
0	163039	20.78	8
0	163092	20.8	34
0	163404	20.82	4
0	163456	20.83	7
0	163508	20.84	21
0	163561	20.86	6
0	163873	20.88	21
0	163925	20.89	11
0	163977	20.9	3
0	164030	20.92	29
0	164342	20.94	33
0	164394	20.95	39
0	164446	20.96	37
0	164499	20.98	18
0	164811	21	20
0	164863	21.01	21
0	164915	21.02	20
0	164968	21.04	24
0	165280	21.06	24
0	165332	21.07	27
0	165384	21.08	3
0	165437	21.1	12
0	165749	21.12	31
0	165801	21.13	13
0	165853	21.14	7
0	165906	21.16	16
0	166218	21.18	17
0	166270	21.19	1
0	166321	21.2	17
0	166374	21.22	34
0	166686	21.24	34
0	166738	21.25	39
0	166790	21.26	18
0	166843	21.28	21
0	167155	21.3	28
0	167207	21.31	22
0	167259	21.32	27
0	167312	21.34	33
0	167624	21.36	21
0	167676	21.37	28
0	167728	21.38	14
0	167781	21.4	37
0	168093	21.42	7
0	168145	21.43	29
0	168197	21.44	17
0	168250	21.46	10
0	168562	21.48	29
0	168614	21.49	5
0	168666	21.5	2
0	168718	21.52	16
0	169030	21.54	22
0	169082	21.55	6
0	169134	21.56	14
0	169187	21.58	39
0	169499	21.6	32
0	169551	21.61	24
0	169603	21.62	27
0	169656	21.64	36
0	169968	21.66	14
0	170020	21.67	11
0	170072	21.68	10
0	170125	21.7	38
0	170437	21.72	6
0	170489	21.73	27
0	170541	21.74	39
0	170594	21.76	25
0	170906	21.78	37
0	170958	21.79	25
0	171010	21.8	4
0	171063	21.82	7
0	171375	21.84	5
0	171427	21.85	16
0	171479	21.86	0
0	171531	21.88	3
0	171843	21.9	6
0	171895	21.91	4
0	171947	21.92	37
0	172000	21.94	25
0	172312	21.96	12
0	172364	21.97	5
0	172416	21.98	11
0	172469	22	39
0	172781	22.02	24
0	172833	22.03	24
0	172885	22.04	30
0	172938	22.06	32
0	173250	22.08	36
0	173302	22.09	14
0	173354	22.1	36
0	173407	22.12	17
0	173719	22.14	1
0	173770	22.15	12
0	173822	22.16	7
0	173875	22.18	15
0	174187	22.2	36
0	174239	22.21	27
0	174291	22.22	34
0	174344	22.24	38
0	174656	22.26	9
0	174708	22.27	0
0	174759	22.28	15
0	174812	22.3	16
0	175124	22.32	38
0	175176	22.33	37
0	175228	22.34	37
0	175281	22.36	34
0	175593	22.38	7
0	175645	22.39	25
0	175697	22.4	31
0	175750	22.42	39
0	176062	22.44	2
0	176113	22.45	17
0	176165	22.46	39
0	176218	22.48	3
0	176530	22.5	30
0	176582	22.51	1
0	176633	22.52	18
0	176686	22.54	5
0	176998	22.56	36
0	177050	22.57	30
0	177102	22.58	0
0	177154	22.6	24
0	177466	22.62	20
0	177518	22.63	5
0	177570	22.64	14
0	177623	22.66	15
0	177935	22.68	20
0	177987	22.69	5
0	178039	22.7	24
0	178092	22.72	21
0	178404	22.74	21
0	178456	22.75	29
0	178508	22.76	24
0	178561	22.78	36
0	178873	22.8	19
0	178925	22.81	3
0	178977	22.82	3
0	179030	22.84	38
0	179342	22.86	22
0	179394	22.87	2
0	179445	22.88	27
0	179498	22.9	37
0	179810	22.92	33
0	179862	22.93	10
0	179914	22.94	8
0	179967	22.96	25
0	180279	22.98	33
0	180331	22.99	10
0	180383	23	2
0	180435	23.02	32
0	180747	23.04	23
0	180799	23.05	20
0	180851	23.06	36
0	180904	23.08	12
0	181216	23.1	20
0	181268	23.11	7
0	181320	23.12	23
0	181373	23.14	5
0	181685	23.16	33
0	181737	23.17	0
0	181788	23.18	33
0	181841	23.2	9
0	182150	23.22	23
0	182202	23.23	25
0	182254	23.24	16
0	182307	23.26	17
0	182619	23.28	6
0	182671	23.29	24
0	182723	23.3	14
0	182776	23.32	9
0	183088	23.34	23
0	183140	23.35	9
0	183192	23.36	39
0	183245	23.38	11
0	183554	23.4	30
0	183606	23.41	29
0	183658	23.42	2
0	183710	23.44	22
0	184022	23.46	14
0	184074	23.47	3
0	184126	23.48	36
0	184179	23.5	24
0	184491	23.52	26
0	184543	23.53	29
0	184595	23.54	18
0	184648	23.56	33
0	184960	23.58	20
0	185013	23.59	2
0	185064	23.6	10
0	185168	23.62	0
0	185479	23.64	5
0	185531	23.65	23
0	185583	23.66	24
0	185687	23.68	2
0	185998	23.7	0
0	186049	23.71	14
0	186101	23.72	7
0	186154	23.74	9
0	186466	23.76	16
0	186518	23.77	2
0	186569	23.78	32
0	186622	23.8	6
0	186934	23.82	4
0	186986	23.83	31
0	187038	23.84	25
0	187091	23.86	11
0	187403	23.88	35
0	187455	23.89	6
0	187507	23.9	31
0	187560	23.92	10
0	187872	23.94	5
0	187924	23.95	0
0	187975	23.96	36
0	188028	23.98	37
0	188340	24	0
0	188391	24.01	38
0	188443	24.02	9
0	188496	24.04	3
0	188808	24.06	0
0	188859	24.07	38
0	188911	24.08	17
0	188964	24.1	18
0	189276	24.12	0
0	189327	24.13	37
0	189379	24.14	7
0	189432	24.16	11
0	189744	24.18	6
0	189796	24.19	34
0	189848	24.2	32
0	189901	24.22	28
0	190210	24.24	8
0	190262	24.25	24
0	190314	24.26	21
0	190367	24.28	32
0	190679	24.3	25
0	190731	24.31	20
0	190783	24.32	34
0	190836	24.34	14
0	191148	24.36	33
0	191200	24.37	16
0	191252	24.38	5
0	191305	24.4	31
0	191617	24.42	2
0	191668	24.43	27
0	191720	24.44	23
0	191773	24.46	7
0	192085	24.48	1
0	192136	24.49	35
0	192188	24.5	30
0	192241	24.52	28
0	192553	24.54	3
0	192605	24.55	21
0	192657	24.56	6
0	192710	24.58	19
0	193022	24.6	10
0	193074	24.61	5
0	193126	24.62	10
0	193179	24.64	26
0	193491	24.66	19
0	193543	24.67	9
0	193595	24.68	35
0	193648	24.7	8
0	193960	24.72	25
0	194012	24.73	14
0	194064	24.74	13
0	194117	24.76	6
0	194429	24.78	28
0	194481	24.79	31
0	194533	24.8	8
0	194586	24.82	2
0	194897	24.84	34
0	194949	24.85	38
0	195001	24.86	24
0	195054	24.88	14
0	195366	24.9	12
0	195418	24.91	0
0	195469	24.92	34
0	195522	24.94	0
0	195833	24.96	36
0	195885	24.97	5
0	195937	24.98	20
0	195990	25	15
0	196302	25.02	33
0	196354	25.03	27
0	196406	25.04	24
0	196459	25.06	7
0	196771	25.08	1
0	196822	25.09	27
0	196874	25.1	15
0	196927	25.12	13
0	197236	25.14	6
0	197288	25.15	31
0	197340	25.16	33
0	197393	25.18	26
0	197702	25.2	31
0	197754	25.21	39
0	197806	25.22	5
0	197859	25.24	27
0	198171	25.26	13
0	198223	25.27	24
0	198275	25.28	4
0	198328	25.3	11
0	198640	25.32	34
0	198692	25.33	33
0	198744	25.34	13
0	198797	25.36	7
0	199109	25.38	35
0	199161	25.39	1
0	199212	25.4	17
0	199265	25.42	9
0	199577	25.44	22
0	199629	25.45	20
0	199681	25.46	33
0	199734	25.48	20
0	200046	25.5	22
0	200098	25.51	19
0	200150	25.52	18
0	200203	25.54	31
0	200512	25.56	22
0	200564	25.57	3
0	200616	25.58	32
0	200669	25.6	24
0	200981	25.62	10
0	201033	25.63	9
0	201085	25.64	26
0	201138	25.66	8
0	201450	25.68	27
0	201502	25.69	19
0	201554	25.7	36
0	201607	25.72	10
0	201919	25.74	30
0	201971	25.75	16
0	202023	25.76	11
0	202076	25.78	34
0	202388	25.8	11
0	202440	25.81	17
0	202492	25.82	9
0	202545	25.84	26
0	202857	25.86	39
0	202909	25.87	7
0	202961	25.88	32
0	203014	25.9	27
0	203326	25.92	38
0	203378	25.93	34
0	203430	25.94	12
0	203483	25.96	8
0	203795	25.98	17
0	203847	25.99	16
0	203899	26	11
0	203952	26.02	28
0	204261	26.04	28
0	204313	26.05	18
0	204365	26.06	25
0	204418	26.08	25
0	204730	26.1	35
0	204782	26.11	20
0	204834	26.12	35
0	204887	26.14	13
0	205199	26.16	26
0	205251	26.17	31
0	205303	26.18	37
0	205356	26.2	31
0	205668	26.22	4
0	205720	26.23	17
0	205772	26.24	25
0	205825	26.26	12
0	206134	26.28	35
0	206186	26.29	19
0	206238	26.3	35
0	206291	26.32	23
0	206603	26.34	22
0	206655	26.35	15
0	206707	26.36	4
0	206760	26.38	26
0	207069	26.4	38
0	207121	26.41	22
0	207173	26.42	24
0	207226	26.44	26
0	207538	26.46	3
0	207590	26.47	9
0	207642	26.48	5
0	207695	26.5	33
0	208004	26.52	27
0	208056	26.53	12