version 2
run General-0-20190613-14:15:19-9268
attr configname General
attr datetime 20190613-14:15:19
attr experiment General
attr inifile omnetpp.ini
attr iterationvars ""
attr iterationvarsf ""
attr measurement ""
attr network Lin
attr processid 9268
attr repetition 0
attr replication #0
attr resultdir results
attr runnumber 0
attr seedset 0

vector 0 Lin.master "Unconditional Frame Ids" ETV
vector 1 Lin.master "Eventtriggered Frame Ids" ETV
0	1	0.01	0
0	52	0.02	3
0	104	0.03	3
0	156	0.04	9
0	468	0.06	24
0	520	0.07	12
0	572	0.08	1
0	623	0.09	38
0	675	0.1	23
0	987	0.12	8
0	1039	0.13	20
0	1091	0.14	16
0	1143	0.15	5
0	1195	0.16	15
0	1504	0.18	35
0	1556	0.19	29
0	1608	0.2	19
0	1660	0.21	39
0	1712	0.22	1
0	2023	0.24	10
0	2075	0.25	23
0	2127	0.26	11
0	2179	0.27	28
0	2231	0.28	0
0	2539	0.3	5
0	2591	0.31	17
0	2643	0.32	4
0	2695	0.33	31
0	2747	0.34	1
0	3058	0.36	38
0	3110	0.37	11
0	3162	0.38	18
0	3214	0.39	0
0	3265	0.4	14
0	3577	0.42	11
0	3629	0.43	6
0	3681	0.44	3
0	3733	0.45	36
0	3785	0.46	14
0	4097	0.48	13
0	4149	0.49	21
0	4201	0.5	5
0	4253	0.51	35
0	4305	0.52	31
0	4614	0.54	36
0	4666	0.55	29
0	4718	0.56	34
0	4770	0.57	13
0	4822	0.58	39
1	208	0.05	55
1	727	0.11	58
1	1247	0.17	50
1	1763	0.23	59
1	2282	0.29	50
1	2798	0.35	51
1	3317	0.41	55
1	3837	0.47	54
1	4357	0.53	50
vector 2 Lin.master "Number of collisions" ETV
2	4864	0.5801	36

